           2
Iteration:     0
 F         7.380000         4.260800         2.500000
 H         7.587000         5.092200         1.815300
           2
Iteration:     1
 F         7.380000         4.260800         2.500000
 H         7.587000         5.092200         1.815300
           2
Iteration:     2
 F         7.380623         4.263304         2.497938
 H         7.575249         5.045001         1.854170
           2
Iteration:     3
 F         7.381481         4.266749         2.495101
 H         7.559083         4.980073         1.907643
           2
Iteration:     4
 F         7.382023         4.268926         2.493308
 H         7.548864         4.939030         1.941444
           2
Iteration:     5
 F         7.382055         4.269055         2.493201
 H         7.548259         4.936600         1.943445
           2
Iteration:     6
 F         7.381769         4.267904         2.494150
 H         7.553662         4.958302         1.925572
           2
Iteration:     7
 F         7.381451         4.266626         2.495202
 H         7.559657         4.982380         1.905742
           2
Iteration:     8
 F         7.381263         4.265872         2.495823
 H         7.563198         4.996600         1.894032
           2
Iteration:     9
 F         7.381236         4.265766         2.495911
 H         7.563697         4.998606         1.892380
           2
Iteration:    10
 F         7.381343         4.266194         2.495557
 H         7.561685         4.990523         1.899036
           2
Iteration:    11
 F         7.381525         4.266924         2.494957
 H         7.558263         4.976778         1.910356
           2
Iteration:    12
 F         7.381696         4.267610         2.494392
 H         7.555042         4.963843         1.921009
           2
Iteration:    13
 F         7.381763         4.267881         2.494168
 H         7.553768         4.958725         1.925223
           2
Iteration:    14
 F         7.381673         4.267520         2.494466
 H         7.555462         4.965531         1.919618
           2
Iteration:    15
 F         7.381447         4.266613         2.495212
 H         7.559718         4.982624         1.905542
           2
Iteration:    16
 F         7.381178         4.265531         2.496103
 H         7.564796         5.003019         1.888745
           2
Iteration:    17
 F         7.380988         4.264768         2.496733
 H         7.568381         5.017418         1.876887
           2
Iteration:    18
 F         7.381002         4.264823         2.496687
 H         7.568123         5.016380         1.877741
           2
Iteration:    19
 F         7.381354         4.266237         2.495522
 H         7.561485         4.989722         1.899696
           2
Iteration:    20
 F         7.382091         4.269197         2.493085
 H         7.547593         4.933924         1.945648
           2
Iteration:    21
 F         7.382677         4.271550         2.491147
 H         7.536550         4.889572         1.982174
           2
Iteration:    22
 F         7.382231         4.269761         2.492620
 H         7.544946         4.923295         1.954402
           2
Iteration:    23
 F         7.381098         4.265209         2.496369
 H         7.566310         5.009099         1.883738
           2
Iteration:    24
 F         7.380450         4.262607         2.498512
 H         7.578521         5.058143         1.843347
           2
Iteration:    25
 F         7.380394         4.262381         2.498698
 H         7.579579         5.062393         1.839848
           2
Iteration:    26
 F         7.380699         4.263608         2.497687
 H         7.573820         5.039264         1.858895
           2
Iteration:    27
 F         7.381175         4.265517         2.496115
 H         7.564862         5.003284         1.888527
           2
Iteration:    28
 F         7.381606         4.267251         2.494687
 H         7.556725         4.970604         1.915440
           2
Iteration:    29
 F         7.381829         4.268147         2.493949
 H         7.552521         4.953716         1.929348
           2
Iteration:    30
 F         7.381809         4.268065         2.494017
 H         7.552904         4.955256         1.928080
           2
Iteration:    31
 F         7.381632         4.267354         2.494602
 H         7.556242         4.968662         1.917040
           2
Iteration:    32
 F         7.381428         4.266537         2.495275
 H         7.560075         4.984059         1.904360
           2
Iteration:    33
 F         7.381297         4.266010         2.495710
 H         7.562552         4.994006         1.896168
           2
Iteration:    34
 F         7.381283         4.265953         2.495756
 H         7.562817         4.995070         1.895292
           2
Iteration:    35
 F         7.381391         4.266385         2.495400
 H         7.560790         4.986929         1.901996
           2
Iteration:    36
 F         7.381585         4.267166         2.494757
 H         7.557126         4.972213         1.914115
           2
Iteration:    37
 F         7.381780         4.267948         2.494113
 H         7.553454         4.957466         1.926260
           2
Iteration:    38
 F         7.381846         4.268214         2.493894
 H         7.552206         4.952451         1.930390
           2
Iteration:    39
 F         7.381678         4.267540         2.494449
 H         7.555369         4.965158         1.919926
           2
Iteration:    40
 F         7.381280         4.265940         2.495767
 H         7.562880         4.995325         1.895081
           2
Iteration:    41
 F         7.380792         4.263980         2.497381
 H         7.572077         5.032263         1.864661
           2
Iteration:    42
 F         7.380429         4.262522         2.498582
 H         7.578920         5.059749         1.842025
           2
Iteration:    43
 F         7.380386         4.262350         2.498723
 H         7.579724         5.062977         1.839367
           2
Iteration:    44
 F         7.380882         4.264343         2.497082
 H         7.570372         5.025416         1.870300
           2
Iteration:    45
 F         7.381985         4.268774         2.493433
 H         7.549577         4.941893         1.939086
           2
Iteration:    46
 F         7.382674         4.271540         2.491155
 H         7.536599         4.889769         1.982012
           2
Iteration:    47
 F         7.382270         4.269917         2.492491
 H         7.544213         4.920348         1.956829
           2
Iteration:    48
 F         7.381498         4.266817         2.495045
 H         7.558763         4.978787         1.908701
           2
Iteration:    49
 F         7.381054         4.265031         2.496515
 H         7.567143         5.012445         1.880982
           2
Iteration:    50
 F         7.380973         4.264708         2.496782
 H         7.568661         5.018542         1.875961
           2
Iteration:    51
 F         7.381125         4.265320         2.496278
 H         7.565790         5.007013         1.885456
           2
Iteration:    52
 F         7.381386         4.266367         2.495415
 H         7.560873         4.987264         1.901720
           2
Iteration:    53
 F         7.381632         4.267353         2.494603
 H         7.556246         4.968679         1.917026
           2
Iteration:    54
 F         7.381758         4.267861         2.494185
 H         7.553865         4.959117         1.924901
           2
Iteration:    55
 F         7.381724         4.267724         2.494298
 H         7.554506         4.961689         1.922782
           2
Iteration:    56
 F         7.381568         4.267098         2.494813
 H         7.557445         4.973495         1.913059
           2
Iteration:    57
 F         7.381379         4.266337         2.495440
 H         7.561015         4.987832         1.901252
           2
Iteration:    58
 F         7.381247         4.265807         2.495876
 H         7.563500         4.997816         1.893030
           2
Iteration:    59
 F         7.381239         4.265774         2.495903
 H         7.563656         4.998439         1.892517
           2
Iteration:    60
 F         7.381391         4.266387         2.495399
 H         7.560779         4.986886         1.902031
           2
Iteration:    61
 F         7.381693         4.267601         2.494399
 H         7.555085         4.964015         1.920867
           2
Iteration:    62
 F         7.382017         4.268899         2.493330
 H         7.548991         4.939539         1.941024
           2
Iteration:    63
 F         7.382083         4.269167         2.493110
 H         7.547736         4.934499         1.945174
           2
Iteration:    64
 F         7.381647         4.267415         2.494552
 H         7.555955         4.967510         1.917989
           2
Iteration:    65
 F         7.380805         4.264034         2.497337
 H         7.571825         5.031249         1.865496
           2
Iteration:    66
 F         7.380092         4.261170         2.499695
 H         7.585263         5.085224         1.821045
           2
Iteration:    67
 F         7.379860         4.260239         2.500462
 H         7.589632         5.102772         1.806594
           2
Iteration:    68
 F         7.380145         4.261380         2.499522
 H         7.584276         5.081261         1.824309
           2
Iteration:    69
 F         7.380910         4.264453         2.496991
 H         7.569855         5.023338         1.872011
           2
Iteration:    70
 F         7.381746         4.267811         2.494226
 H         7.554098         4.960050         1.924132
           2
Iteration:    71
 F         7.382121         4.269317         2.492986
 H         7.547030         4.931663         1.947510
           2
Iteration:    72
 F         7.381993         4.268806         2.493407
 H         7.549429         4.941298         1.939576
           2
Iteration:    73
 F         7.381647         4.267414         2.494553
 H         7.555959         4.967527         1.917975
           2
Iteration:    74
 F         7.381355         4.266241         2.495519
 H         7.561465         4.989642         1.899762
           2
Iteration:    75
 F         7.381225         4.265719         2.495949
 H         7.563915         4.999481         1.891659
           2
Iteration:    76
 F         7.381255         4.265842         2.495848
 H         7.563338         4.997162         1.893568
           2
Iteration:    77
 F         7.381402         4.266433         2.495361
 H         7.560567         4.986033         1.902734
           2
Iteration:    78
 F         7.381594         4.267202         2.494728
 H         7.556957         4.971536         1.914673
           2
Iteration:    79
 F         7.381737         4.267775         2.494256
 H         7.554268         4.960734         1.923569
           2
Iteration:    80
 F         7.381748         4.267819         2.494220
 H         7.554061         4.959901         1.924255
           2
Iteration:    81
 F         7.381601         4.267232         2.494703
 H         7.556815         4.970963         1.915145
           2
Iteration:    82
 F         7.381352         4.266228         2.495530
 H         7.561526         4.989885         1.899561
           2
Iteration:    83
 F         7.381106         4.265242         2.496342
 H         7.566156         5.008482         1.884246
           2
Iteration:    84
 F         7.380986         4.264759         2.496740
 H         7.568420         5.017577         1.876756
           2
Iteration:    85
 F         7.381112         4.265267         2.496321
 H         7.566036         5.008001         1.884642
           2
Iteration:    86
 F         7.381605         4.267247         2.494691
 H         7.556745         4.970684         1.915374
           2
Iteration:    87
 F         7.382360         4.270279         2.492194
 H         7.542518         4.913541         1.962435
           2
Iteration:    88
 F         7.382626         4.271346         2.491314
 H         7.537506         4.893413         1.979011
           2
Iteration:    89
 F         7.381818         4.268102         2.493987
 H         7.552733         4.954569         1.928646
           2
Iteration:    90
 F         7.380754         4.263828         2.497506
 H         7.572788         5.035120         1.862308
           2
Iteration:    91
 F         7.380334         4.262140         2.498897
 H         7.580713         5.066949         1.836095
           2
Iteration:    92
 F         7.380428         4.262518         2.498585
 H         7.578936         5.059811         1.841974
           2
Iteration:    93
 F         7.380827         4.264120         2.497265
 H         7.571418         5.029614         1.866843
           2
Iteration:    94
 F         7.381328         4.266135         2.495606
 H         7.561963         4.991639         1.898117
           2
Iteration:    95
 F         7.381714         4.267685         2.494330
 H         7.554691         4.962432         1.922171
           2
Iteration:    96
 F         7.381855         4.268249         2.493865
 H         7.552041         4.951790         1.930934
           2
Iteration:    97
 F         7.381765         4.267888         2.494163
 H         7.553737         4.958600         1.925326
           2
Iteration:    98
 F         7.381561         4.267071         2.494836
 H         7.557573         4.974007         1.912638
           2
Iteration:    99
 F         7.381373         4.266313         2.495460
 H         7.561128         4.988286         1.900878
           2
Iteration:   100
 F         7.381279         4.265936         2.495770
 H         7.562899         4.995399         1.895021
           2
Iteration:   101
 F         7.381308         4.266052         2.495674
 H         7.562351         4.993199         1.896833
           2
Iteration:   102
 F         7.381450         4.266623         2.495204
 H         7.559671         4.982436         1.905696
           2
Iteration:   103
 F         7.381653         4.267441         2.494531
 H         7.555835         4.967030         1.918384
           2
Iteration:   104
 F         7.381815         4.268092         2.493995
 H         7.552781         4.954763         1.928487
           2
Iteration:   105
 F         7.381810         4.268069         2.494013
 H         7.552886         4.955186         1.928138
           2
Iteration:   106
 F         7.381565         4.267085         2.494824
 H         7.557507         4.973744         1.912854
           2
Iteration:   107
 F         7.381131         4.265342         2.496260
 H         7.565685         5.006592         1.885803
           2
Iteration:   108
 F         7.380678         4.263524         2.497757
 H         7.574216         5.040856         1.857585
           2
Iteration:   109
 F         7.380413         4.262457         2.498635
 H         7.579225         5.060970         1.841019
           2
Iteration:   110
 F         7.380525         4.262909         2.498263
 H         7.577102         5.052445         1.848040
           2
Iteration:   111
 F         7.381251         4.265823         2.495864
 H         7.563429         4.997528         1.893267
           2
Iteration:   112
 F         7.382369         4.270314         2.492165
 H         7.542354         4.912882         1.962977
           2
Iteration:   113
 F         7.382666         4.271510         2.491180
 H         7.536740         4.890335         1.981546
           2
Iteration:   114
 F         7.381980         4.268751         2.493452
 H         7.549685         4.942325         1.938729
           2
Iteration:   115
 F         7.381261         4.265866         2.495828
 H         7.563228         4.996721         1.893932
           2
Iteration:   116
 F         7.380960         4.264656         2.496825
 H         7.568905         5.019523         1.875154
           2
Iteration:   117
 F         7.380987         4.264766         2.496734
 H         7.568389         5.017451         1.876859
           2
Iteration:   118
 F         7.381204         4.265635         2.496018
 H         7.564310         5.001068         1.890352
           2
Iteration:   119
 F         7.381481         4.266749         2.495101
 H         7.559084         4.980076         1.907639
           2
Iteration:   120
 F         7.381696         4.267611         2.494390
 H         7.555034         4.963813         1.921034
           2
Iteration:   121
 F         7.381764         4.267885         2.494165
 H         7.553750         4.958653         1.925283
           2
Iteration:   122
 F         7.381677         4.267537         2.494452
 H         7.555385         4.965222         1.919873
           2
Iteration:   123
 F         7.381500         4.266825         2.495038
 H         7.558727         4.978643         1.908820
           2
Iteration:   124
 F         7.381326         4.266127         2.495613
 H         7.561999         4.991784         1.897998
           2
Iteration:   125
 F         7.381237         4.265770         2.495907
 H         7.563677         4.998523         1.892447
           2
Iteration:   126
 F         7.381285         4.265961         2.495749
 H         7.562778         4.994914         1.895420
           2
Iteration:   127
 F         7.381489         4.266781         2.495074
 H         7.558930         4.979459         1.908148
           2
Iteration:   128
 F         7.381804         4.268046         2.494032
 H         7.552994         4.955618         1.927782
           2
Iteration:   129
 F         7.382054         4.269051         2.493205
 H         7.548281         4.936687         1.943373
           2
Iteration:   130
 F         7.381964         4.268690         2.493502
 H         7.549974         4.943487         1.937773
           2
Iteration:   131
 F         7.381386         4.266365         2.495417
 H         7.560882         4.987301         1.901690
           2
Iteration:   132
 F         7.380549         4.263003         2.498186
 H         7.576660         5.050672         1.849501
           2
Iteration:   133
 F         7.379973         4.260690         2.500091
 H         7.587517         5.094275         1.813591
           2
Iteration:   134
 F         7.379885         4.260339         2.500380
 H         7.589164         5.100893         1.808140
           2
Iteration:   135
 F         7.380324         4.262103         2.498927
 H         7.580884         5.067637         1.835529
           2
Iteration:   136
 F         7.381207         4.265648         2.496008
 H         7.564250         5.000827         1.890550
           2
Iteration:   137
 F         7.381962         4.268682         2.493509
 H         7.550011         4.943638         1.937648
           2
Iteration:   138
 F         7.382155         4.269453         2.492873
 H         7.546390         4.929094         1.949626
           2
Iteration:   139
 F         7.381896         4.268415         2.493729
 H         7.551263         4.948666         1.933507
           2
Iteration:   140
 F         7.381528         4.266938         2.494945
 H         7.558196         4.976509         1.910577
           2
Iteration:   141
 F         7.381282         4.265948         2.495760
 H         7.562840         4.995164         1.895214
           2
Iteration:   142
 F         7.381212         4.265669         2.495990
 H         7.564148         5.000416         1.890888
           2
Iteration:   143
 F         7.381294         4.265996         2.495721
 H         7.562616         4.994264         1.895955
           2
Iteration:   144
 F         7.381468         4.266695         2.495145
 H         7.559336         4.981091         1.906804
           2
Iteration:   145
 F         7.381652         4.267434         2.494536
 H         7.555866         4.967151         1.918284
           2
Iteration:   146
 F         7.381753         4.267841         2.494201
 H         7.553958         4.959488         1.924595
           2
Iteration:   147
 F         7.381708         4.267660         2.494350
 H         7.554807         4.962898         1.921787
           2
Iteration:   148
 F         7.381522         4.266914         2.494965
 H         7.558306         4.976953         1.910212
           2
Iteration:   149
 F         7.381273         4.265912         2.495790
 H         7.563010         4.995847         1.894651
           2
Iteration:   150
 F         7.381072         4.265104         2.496455
 H         7.566802         5.011075         1.882110
           2
Iteration:   151
 F         7.381033         4.264949         2.496583
 H         7.567531         5.014004         1.879698
           2
Iteration:   152
 F         7.381271         4.265906         2.495795
 H         7.563036         4.995951         1.894566
           2
Iteration:   153
 F         7.381863         4.268284         2.493837
 H         7.551879         4.951138         1.931472
           2
Iteration:   154
 F         7.382520         4.270920         2.491666
 H         7.539508         4.901452         1.972391
           2
Iteration:   155
 F         7.382429         4.270556         2.491965
 H         7.541215         4.908309         1.966744
           2
Iteration:   156
 F         7.381397         4.266411         2.495379
 H         7.560666         4.986432         1.902405
           2
Iteration:   157
 F         7.380494         4.262783         2.498367
 H         7.577696         5.054830         1.846076
           2
Iteration:   158
 F         7.380253         4.261815         2.499164
 H         7.582238         5.073073         1.831052
           2
Iteration:   159
 F         7.380468         4.262678         2.498454
 H         7.578188         5.056806         1.844448
           2
Iteration:   160
 F         7.380944         4.264591         2.496878
 H         7.569210         5.020749         1.874143
           2
Iteration:   161
 F         7.381459         4.266658         2.495175
 H         7.559508         4.981779         1.906237
           2
Iteration:   162
 F         7.381794         4.268005         2.494067
 H         7.553189         4.956401         1.927137
           2
Iteration:   163
 F         7.381860         4.268269         2.493849
 H         7.551950         4.951425         1.931236
           2
Iteration:   164
 F         7.381716         4.267691         2.494325
 H         7.554663         4.962322         1.922262
           2
Iteration:   165
 F         7.381500         4.266824         2.495039
 H         7.558732         4.978663         1.908803
           2
Iteration:   166
 F         7.381332         4.266151         2.495593
 H         7.561889         4.991342         1.898362
           2
Iteration:   167
 F         7.381275         4.265920         2.495783
 H         7.562970         4.995686         1.894784
           2
Iteration:   168
 F         7.381341         4.266186         2.495565
 H         7.561725         4.990686         1.898902
           2
Iteration:   169
 F         7.381507         4.266852         2.495016
 H         7.558600         4.978133         1.909240
           2
Iteration:   170
 F         7.381705         4.267648         2.494360
 H         7.554864         4.963127         1.921598
           2
Iteration:   171
 F         7.381824         4.268126         2.493966
 H         7.552618         4.954108         1.929026
           2
Iteration:   172
 F         7.381752         4.267839         2.494203
 H         7.553968         4.959529         1.924562
           2
Iteration:   173
 F         7.381456         4.266646         2.495186
 H         7.559565         4.982010         1.906047
           2
Iteration:   174
 F         7.381021         4.264899         2.496624
 H         7.567763         5.014938         1.878929
           2
Iteration:   175
 F         7.380627         4.263318         2.497927
 H         7.575185         5.044745         1.854382
           2
Iteration:   176
 F         7.380465         4.262669         2.498461
 H         7.578228         5.056969         1.844314
           2
Iteration:   177
 F         7.380736         4.263755         2.497567
 H         7.573133         5.036506         1.861167
           2
Iteration:   178
 F         7.381652         4.267434         2.494537
 H         7.555870         4.967167         1.918271
           2
Iteration:   179
 F         7.382632         4.271370         2.491295
 H         7.537395         4.892967         1.979379
           2
Iteration:   180
 F         7.382531         4.270966         2.491628
 H         7.539291         4.900581         1.973108
           2
Iteration:   181
 F         7.381684         4.267563         2.494431
 H         7.555263         4.964733         1.920276
           2
Iteration:   182
 F         7.381069         4.265095         2.496463
 H         7.566844         5.011244         1.881972
           2
Iteration:   183
 F         7.380895         4.264396         2.497038
 H         7.570124         5.024417         1.871122
           2
Iteration:   184
 F         7.381013         4.264871         2.496648
 H         7.567897         5.015473         1.878489
           2
Iteration:   185
 F         7.381282         4.265947         2.495761
 H         7.562845         4.995184         1.895197
           2
Iteration:   186
 F         7.381565         4.267084         2.494825
 H         7.557508         4.973748         1.912851
           2
Iteration:   187
 F         7.381743         4.267801         2.494234
 H         7.554143         4.960232         1.923983
           2
Iteration:   188
 F         7.381756         4.267853         2.494191
 H         7.553899         4.959253         1.924789
           2
Iteration:   189
 F         7.381627         4.267333         2.494619
 H         7.556339         4.969054         1.916717
           2
Iteration:   190
 F         7.381439         4.266580         2.495240
 H         7.559875         4.983254         1.905022
           2
Iteration:   191
 F         7.381288         4.265972         2.495740
 H         7.562726         4.994706         1.895591
           2
Iteration:   192
 F         7.381242         4.265790         2.495890
 H         7.563581         4.998140         1.892764
           2
Iteration:   193
 F         7.381341         4.266188         2.495563
 H         7.561715         4.990644         1.898936
           2
Iteration:   194
 F         7.381584         4.267163         2.494760
 H         7.557138         4.972262         1.914075
           2
Iteration:   195
 F         7.381888         4.268383         2.493755
 H         7.551413         4.949266         1.933013
           2
Iteration:   196
 F         7.382044         4.269011         2.493238
 H         7.548465         4.937428         1.942763
           2
Iteration:   197
 F         7.381811         4.268074         2.494010
 H         7.552865         4.955098         1.928211
           2
Iteration:   198
 F         7.381142         4.265387         2.496222
 H         7.565474         5.005743         1.886502
           2
Iteration:   199
 F         7.380363         4.262259         2.498799
 H         7.580155         5.064709         1.837941
           2
Iteration:   200
 F         7.379920         4.260479         2.500264
 H         7.588506         5.098247         1.810320
           2
Iteration:   201
 F         7.379966         4.260665         2.500111
 H         7.587633         5.094744         1.813205
           2
Iteration:   202
 F         7.380558         4.263043         2.498153
 H         7.576476         5.049929         1.850112
           2
Iteration:   203
 F         7.381512         4.266872         2.494999
 H         7.558504         4.977748         1.909557
           2
Iteration:   204
 F         7.382134         4.269371         2.492942
 H         7.546779         4.930655         1.948341
           2
Iteration:   205
 F         7.382137         4.269383         2.492932
 H         7.546722         4.930425         1.948530
           2
Iteration:   206
 F         7.381776         4.267931         2.494127
 H         7.553533         4.957781         1.926001
           2
Iteration:   207
 F         7.381414         4.266477         2.495324
 H         7.560356         4.985186         1.903431
           2
Iteration:   208
 F         7.381223         4.265711         2.495956
 H         7.563953         4.999634         1.891533
           2
Iteration:   209
 F         7.381214         4.265676         2.495984
 H         7.564115         5.000284         1.890997
           2
Iteration:   210
 F         7.381342         4.266190         2.495561
 H         7.561705         4.990606         1.898968
           2
Iteration:   211
 F         7.381535         4.266965         2.494922
 H         7.558066         4.975990         1.911005
           2
Iteration:   212
 F         7.381702         4.267634         2.494372
 H         7.554927         4.963381         1.921389
           2
Iteration:   213
 F         7.381754         4.267847         2.494197
 H         7.553931         4.959382         1.924682
           2
Iteration:   214
 F         7.381655         4.267447         2.494526
 H         7.555806         4.966911         1.918482
           2
Iteration:   215
 F         7.381440         4.266582         2.495238
 H         7.559864         4.983212         1.905057
           2
Iteration:   216
 F         7.381203         4.265632         2.496021
 H         7.564325         5.001126         1.890304
           2
Iteration:   217