           4
Iteration:     0
 N         7.380000         4.260800         2.500000
 H         7.587000         5.092200         1.815300
 H         7.717500         3.321000         2.046400
 H         6.301900         4.206600         2.693800
           4
Iteration:     1
 N         7.380000         4.260800         2.500000
 H         7.587000         5.092200         1.815300
 H         7.717500         3.321000         2.046400
 H         6.301900         4.206600         2.693800
           4
Iteration:     2
 N         7.377273         4.261260         2.497087
 H         7.575047         5.091226         1.844089
 H         7.722304         3.305081         2.061508
 H         6.346944         4.217100         2.690390
           4
Iteration:     3
 N         7.374910         4.261197         2.493428
 H         7.559291         5.073227         1.880735
 H         7.716736         3.314434         2.083730
 H         6.401103         4.226624         2.682365
           4
Iteration:     4
 N         7.374161         4.260308         2.489646
 H         7.545170         5.049539         1.914370
 H         7.703791         3.344046         2.109012
 H         6.438578         4.233052         2.676006
           4
Iteration:     5
 N         7.375600         4.258550         2.486588
 H         7.537704         5.035036         1.933893
 H         7.689339         3.380560         2.131383
 H         6.440503         4.235467         2.676603
           4
Iteration:     6
 N         7.378254         4.256452         2.485032
 H         7.538644         5.038068         1.934672
 H         7.679735         3.407583         2.144916
 H         6.412284         4.234564         2.683920
           4
Iteration:     7
 N         7.380489         4.255127         2.485374
 H         7.546417         5.055498         1.920048
 H         7.679617         3.411675         2.144861
 H         6.373566         4.231465         2.693834
           4
Iteration:     8
 N         7.381313         4.255343         2.487364
 H         7.557596         5.076568         1.898055
 H         7.688677         3.392014         2.131036
 H         6.341881         4.227055         2.702002
           4
Iteration:     9
 N         7.380662         4.256862         2.490261
 H         7.568658         5.090550         1.876515
 H         7.701411         3.361995         2.108848
 H         6.327131         4.221985         2.705471
           4
Iteration:    10
 N         7.378971         4.258982         2.493332
 H         7.577140         5.091119         1.860268
 H         7.711594         3.337289         2.084952
 H         6.331966         4.216661         2.702937
           4
Iteration:    11
 N         7.376797         4.261126         2.496130
 H         7.581855         5.076279         1.851036
 H         7.715252         3.327797         2.063853
 H         6.353803         4.211193         2.694393
           4
Iteration:    12
 N         7.374815         4.262889         2.498432
 H         7.582554         5.047221         1.848276
 H         7.710475         3.338138         2.048096
 H         6.385424         4.205418         2.680920
           4
Iteration:    13
 N         7.373939         4.263915         2.500181
 H         7.579954         5.009291         1.848983
 H         7.697202         3.368263         2.038960
 H         6.413473         4.198959         2.665045
           4
Iteration:    14
 N         7.375001         4.263979         2.501640
 H         7.575919         4.972969         1.847072
 H         7.678075         3.411177         2.035520
 H         6.421867         4.191474         2.650117
           4
Iteration:    15
 N         7.377909         4.263279         2.503538
 H         7.572525         4.949932         1.835532
 H         7.658560         3.452067         2.033058
 H         6.404377         4.183353         2.637751
           4
Iteration:    16
 N         7.381522         4.262604         2.506694
 H         7.570109         4.945597         1.811803
 H         7.644774         3.473145         2.023931
 H         6.370360         4.175987         2.626746
           4
Iteration:    17
 N         7.384670         4.262796         2.511262
 H         7.566732         4.956260         1.780694
 H         7.639503         3.464833         2.003380
 H         6.335266         4.170971         2.614923
           4
Iteration:    18
 N         7.386808         4.263907         2.516371
 H         7.559872         4.972982         1.751442
 H         7.640096         3.434263         1.975629
 H         6.311827         4.169382         2.600935
           4
Iteration:    19
 N         7.387909         4.265344         2.520720
 H         7.548236         4.986994         1.732407
 H         7.641501         3.398201         1.950406
 H         6.306764         4.171456         2.584753
           4
Iteration:    20
 N         7.388198         4.266541         2.523422
 H         7.531941         4.993105         1.727763
 H         7.640082         3.370195         1.935205
 H         6.320450         4.176720         2.567058
           4
Iteration:    21
 N         7.388026         4.267163         2.524103
 H         7.511824         4.989755         1.738189
 H         7.634271         3.357225         1.933632
 H         6.348770         4.184403         2.548741
           4
Iteration:    22
 N         7.387901         4.266976         2.522688
 H         7.489591         4.978336         1.761817
 H         7.623965         3.362240         1.947133
 H         6.383041         4.193394         2.531274
           4
Iteration:    23
 N         7.388510         4.265787         2.519503
 H         7.468582         4.964255         1.792692
 H         7.610743         3.384247         1.974633
 H         6.408814         4.201994         2.517158
           4
Iteration:    24
 N         7.390295         4.263588         2.515510
 H         7.453199         4.957187         1.820254
 H         7.598348         3.415377         2.010475
 H         6.411793         4.208487         2.509241
           4
Iteration:    25
 N         7.392787         4.260890         2.512025
 H         7.446642         4.966305         1.834662
 H         7.592112         3.439934         2.044373
 H         6.389959         4.212307         2.509358
           4
Iteration:    26
 N         7.394756         4.258849         2.509964
 H         7.449731         4.993076         1.833926
 H         7.597106         3.439901         2.065315
 H         6.354505         4.213936         2.517802
           4
Iteration:    27
 N         7.395076         4.258455         2.509281
 H         7.461565         5.029508         1.824119
 H         7.614792         3.408935         2.068923
 H         6.320535         4.213941         2.533492
           4
Iteration:    28
 N         7.393342         4.259545         2.509096
 H         7.479717         5.062479         1.814183
 H         7.640258         3.362062         2.061175
 H         6.301024         4.212697         2.553744
           4
Iteration:    29
 N         7.389920         4.261232         2.508491
 H         7.500664         5.081116         1.810850
 H         7.665472         3.322148         2.051704
 H         6.302406         4.210527         2.574948
           4
Iteration:    30
 N         7.385487         4.262795         2.507013
 H         7.521736         5.081517         1.816560
 H         7.685052         3.302882         2.046748
 H         6.323358         4.207684         2.594735
           4
Iteration:    31
 N         7.380751         4.263825         2.504562
 H         7.541736         5.064953         1.830692
 H         7.696930         3.308565         2.048907
 H         6.357301         4.204242         2.612502
           4
Iteration:    32
 N         7.376621         4.264048         2.501321
 H         7.560148         5.036818         1.849915
 H         7.700889         3.337703         2.058533
 H         6.392314         4.200139         2.628693
           4
Iteration:    33
 N         7.374069         4.263345         2.497856
 H         7.576943         5.007459         1.867665
 H         7.698868         3.381597         2.073249
 H         6.413010         4.195382         2.644377
           4
Iteration:    34
 N         7.373300         4.261982         2.495018
 H         7.592839         4.988530         1.876731
 H         7.695565         3.424450         2.087601
 H         6.411096         4.190395         2.660397
           4
Iteration:    35
 N         7.373456         4.260686         2.493546
 H         7.608489         4.985937         1.874038
 H         7.696939         3.449356         2.094965
 H         6.391916         4.186096         2.676184
           4
Iteration:    36
 N         7.373486         4.260229         2.493679
 H         7.623115         4.997599         1.862129
 H         7.706724         3.446722         2.091269
 H         6.367089         4.183415         2.689939
           4
Iteration:    37
 N         7.372949         4.260778         2.495026
 H         7.634323         5.016560         1.846823
 H         7.723170         3.420554         2.078378
 H         6.346888         4.182994         2.699422
           4
Iteration:    38
 N         7.372020         4.261869         2.496822
 H         7.639187         5.034731         1.834314
 H         7.740061         3.385105         2.062759
 H         6.338048         4.185103         2.702597
           4
Iteration:    39
 N         7.371120         4.262937         2.498379
 H         7.635557         5.045838         1.829024
 H         7.751150         3.354644         2.050726
 H         6.343092         4.189620         2.698273
           4
Iteration:    40
 N         7.370725         4.263584         2.499289
 H         7.622205         5.046528         1.833097
 H         7.752350         3.338330         2.046232
 H         6.360727         4.196254         2.686059
           4
Iteration:    41
 N         7.371444         4.263498         2.499346
 H         7.598439         5.035968         1.846814
 H         7.740948         3.341760         2.051688
 H         6.385904         4.204576         2.666090
           4
Iteration:    42
 N         7.374059         4.262343         2.498594
 H         7.565352         5.017263         1.867155
 H         7.715794         3.367472         2.068020
 H         6.407818         4.213626         2.639858
           4
Iteration:    43
 N         7.378904         4.260010         2.497705
 H         7.528625         5.000856         1.884715
 H         7.681133         3.408307         2.091188
 H         6.411866         4.221618         2.611489
           4
Iteration:    44
 N         7.384866         4.257335         2.498060
 H         7.496684         5.000196         1.887494
 H         7.648824         3.440810         2.109086
 H         6.393275         4.226951         2.585873
           4
Iteration:    45
 N         7.390100         4.256059         2.500714
 H         7.473624         5.017924         1.872423
 H         7.629990         3.438575         2.108102
 H         6.362439         4.229177         2.565054
           4
Iteration:    46
 N         7.393534         4.257040         2.505313
 H         7.459359         5.043999         1.846587
 H         7.625483         3.399621         2.085936
 H         6.333483         4.228436         2.549150
           4
Iteration:    47
 N         7.394968         4.259370         2.510239
 H         7.453069         5.064534         1.820674
 H         7.628025         3.349991         2.054183
 H         6.317302         4.225140         2.538359
           4
Iteration:    48
 N         7.394725         4.261817         2.514049
 H         7.453359         5.070908         1.802298
 H         7.630766         3.314785         2.025470
 H         6.317647         4.219978         2.532496
           4
Iteration:    49
 N         7.393309         4.263774         2.516258
 H         7.458710         5.061718         1.793442
 H         7.630710         3.303308         2.005277
 H         6.332038         4.213452         2.530853
           4
Iteration:    50
 N         7.391179         4.265037         2.516875
 H         7.468396         5.038741         1.793151
 H         7.627245         3.316502         1.994763
 H         6.355411         4.205678         2.533090
           4
Iteration:    51
 N         7.388850         4.265479         2.516073
 H         7.482243         5.006085         1.798882
 H         7.621052         3.351969         1.993798
 H         6.380126         4.196727         2.539464
           4
Iteration:    52
 N         7.386922         4.265075         2.514337
 H         7.499801         4.972072         1.805751
 H         7.614425         3.401214         2.000251
 H         6.395979         4.187103         2.550270
           4
Iteration:    53
 N         7.385695         4.264167         2.512570
 H         7.519985         4.947417         1.807509
 H         7.611364         3.447698         2.008171
 H         6.395911         4.177892         2.565136
           4
Iteration:    54
 N         7.384823         4.263484         2.511682
 H         7.541590         4.938625         1.800684
 H         7.616062         3.473558         2.009439
 H         6.381733         4.170320         2.583036
           4
Iteration:    55
 N         7.383708         4.263626         2.511972
 H         7.563264         4.945167         1.786989
 H         7.630466         3.470000         1.999495
 H         6.361138         4.165365         2.602643
           4
Iteration:    56
 N         7.382074         4.264518         2.512910
 H         7.582708         4.961703         1.772093
 H         7.652162         3.442654         1.981926
 H         6.342710         4.163778         2.622080
           4
Iteration:    57
 N         7.380075         4.265568         2.513527
 H         7.596868         4.980917         1.762806
 H         7.675197         3.406684         1.965773
 H         6.333300         4.165944         2.638939
           4
Iteration:    58
 N         7.378053         4.266213         2.513041
 H         7.603470         4.996687         1.764023
 H         7.693905         3.376182         1.958827
 H         6.336078         4.171713         2.651424
           4
Iteration:    59
 N         7.376342         4.266115         2.511010
 H         7.601588         5.005923         1.778049
 H         7.705063         3.359270         1.965361
 H         6.350576         4.180750         2.659096
           4
Iteration:    60
 N         7.375311         4.265024         2.507175
 H         7.591103         5.008253         1.805431
 H         7.707039         3.360107         1.987802
 H         6.373414         4.192740         2.662562
           4
Iteration:    61
 N         7.375441         4.262726         2.501604
 H         7.573308         5.006472         1.843409
 H         7.699433         3.379690         2.026355
 H         6.397018         4.206874         2.663440
           4
Iteration:    62
 N         7.376984         4.259369         2.495277
 H         7.552808         5.008108         1.882380
 H         7.685526         3.410426         2.074257
 H         6.409972         4.221153         2.664495
           4
Iteration:    63
 N         7.379321         4.255919         2.489964
 H         7.536015         5.022014         1.909958
 H         7.673918         3.432303         2.116881
 H         6.405900         4.233313         2.668124
           4
Iteration:    64
 N         7.381273         4.253798         2.486819
 H         7.526090         5.049855         1.921971
 H         7.673179         3.424897         2.142174
 H         6.389442         4.242357         2.674527
           4
Iteration:    65
 N         7.382116         4.253654         2.485725
 H         7.522669         5.084515         1.922565
 H         7.684411         3.386545         2.149025
 H         6.369916         4.248038         2.682281
           4
Iteration:    66
 N         7.381838         4.254903         2.485856
 H         7.524210         5.114712         1.918099
 H         7.700761         3.336952         2.144591
 H         6.355883         4.250084         2.689357
           4
Iteration:    67
 N         7.380776         4.256613         2.486420
 H         7.529017         5.131373         1.913546
 H         7.714359         3.298150         2.136542
 H         6.352247         4.248454         2.694128
           4
Iteration:    68
 N         7.379269         4.258217         2.486980
 H         7.535997         5.130863         1.911216
 H         7.721024         3.281518         2.129135
 H         6.359534         4.243319         2.696073
           4
Iteration:    69
 N         7.377590         4.259444         2.487390
 H         7.545042         5.112664         1.911266
 H         7.719237         3.291377         2.123937
 H         6.375607         4.234609         2.695524
           4
Iteration:    70
 N         7.376056         4.260087         2.487694
 H         7.556817         5.078533         1.911926
 H         7.708750         3.329078         2.121103
 H         6.395637         4.222098         2.693473
           4
Iteration:    71
 N         7.375057         4.260048         2.488222
 H         7.572012         5.036474         1.908720
 H         7.692339         3.387339         2.118750
 H         6.410739         4.206431         2.691701
           4
Iteration:    72
 N         7.374650         4.259820         2.489707
 H         7.590305         5.001402         1.895767
 H         7.678289         3.442101         2.110965
 H         6.412146         4.189920         2.691807
           4
Iteration:    73
 N         7.374319         4.260507         2.492931
 H         7.610096         4.983278         1.870786
 H         7.675852         3.465571         2.089563
 H         6.399393         4.175018         2.693389
           4
Iteration:    74
 N         7.373729         4.262560         2.497880
 H         7.628230         4.980624         1.837687
 H         7.686249         3.451459         2.053113
 H         6.379067         4.163262         2.694165
           4
Iteration:    75
 N         7.373189         4.265125         2.503344
 H         7.639968         4.985577         1.805301
 H         7.701208         3.418223         2.012377
 H         6.359866         4.155895         2.691348
           4
Iteration:    76
 N         7.373148         4.267152         2.507897
 H         7.641759         4.990040         1.782082
 H         7.711488         3.388090         1.980434
 H         6.348366         4.153394         2.683243
           4
Iteration:    77
 N         7.373821         4.268194         2.510917
 H         7.632977         4.989715         1.771222
 H         7.712924         3.372105         1.963052
 H         6.346369         4.155236         2.669518
           4
Iteration:    78
 N         7.375312         4.268167         2.512383
 H         7.614191         4.983753         1.772264
 H         7.704737         3.372931         1.960932
 H         6.352616         4.160744         2.650227
           4
Iteration:    79
 N         7.377719         4.267048         2.512456
 H         7.586429         4.973700         1.783185
 H         7.687438         3.389912         1.973412
 H         6.364225         4.169367         2.625814
           4
Iteration:    80
 N         7.380983         4.264942         2.511529
 H         7.552677         4.964056         1.799507
 H         7.663769         3.418007         1.997475
 H         6.376292         4.180179         2.598304
           4
Iteration:    81
 N         7.384663         4.262396         2.510440
 H         7.518575         4.961638         1.813911
 H         7.640169         3.444400         2.024850
 H         6.382857         4.191583         2.571661
           4
Iteration:    82
 N         7.388100         4.260377         2.510159
 H         7.489104         4.971027         1.820521
 H         7.624014         3.452512         2.044452
 H         6.380715         4.202135         2.549353
           4
Iteration:    83
 N         7.390841         4.259637         2.511089
 H         7.466084         4.991262         1.818752
 H         7.618713         3.433548         2.050004
 H         6.370946         4.211146         2.532647
           4
Iteration:    84
 N         7.392717         4.260146         2.512801
 H         7.449879         5.016840         1.812051
 H         7.622410         3.393900         2.043835
 H         6.357391         4.218149         2.521731
           4
Iteration:    85
 N         7.393679         4.261296         2.514424
 H         7.440833         5.040194         1.805186
 H         7.630396         3.350185         2.033267
 H         6.345081         4.222535         2.516608
           4
Iteration:    86
 N         7.393727         4.262490         2.515237
 H         7.439039         5.055101         1.801966
 H         7.638384         3.317394         2.024781
 H         6.338227         4.223822         2.517014
           4
Iteration:    87
 N         7.392869         4.263389         2.514850
 H         7.444534         5.058290         1.804407
 H         7.643990         3.303806         2.021952
 H         6.339046         4.221733         2.522781
           4
Iteration:    88
 N         7.391059         4.263792         2.513015
 H         7.458208         5.048216         1.813324
 H         7.646245         3.314194         2.026753
 H         6.348269         4.215818         2.534565
           4
Iteration:    89
 N         7.388229         4.263501         2.509580
 H         7.481968         5.024947         1.828085
 H         7.645150         3.351878         2.040355
 H         6.364931         4.205438         2.553932
           4
Iteration:    90
 N         7.384554         4.262496         2.505035
 H         7.516332         4.994567         1.843974
 H         7.643051         3.410636         2.060107
 H         6.383732         4.191034         2.581455
           4
Iteration:    91
 N         7.380557         4.261529         2.501075
 H         7.556830         4.971654         1.851927
 H         7.646672         3.462359         2.074843
 H         6.395163         4.175651         2.613795
           4
Iteration:    92
 N         7.376495         4.261869         2.499243
 H         7.597388         4.966315         1.847502
 H         7.663311         3.476043         2.072222
 H         6.394413         4.162593         2.646297
           4
Iteration:    93
 N         7.372585         4.263637         2.499377
 H         7.633233         4.976195         1.835027
 H         7.691813         3.450684         2.053443
 H         6.384397         4.153491         2.675687
           4
Iteration:    94
 N         7.369501         4.265666         2.500165
 H         7.659048         4.992088         1.822904
 H         7.721400         3.410927         2.031849
 H         6.371853         4.149167         2.698459
           4
Iteration:    95
 N         7.367731         4.266960         2.500520
 H         7.671686         5.005481         1.817466
 H         7.742313         3.379185         2.018472
 H         6.362890         4.149527         2.712340
           4
Iteration:    96
 N         7.367283         4.267211         2.500042
 H         7.671549         5.012813         1.820635
 H         7.751432         3.363986         2.016765
 H         6.360140         4.153915         2.717523
           4
Iteration:    97
 N         7.368032         4.266373         2.498687
 H         7.659978         5.014096         1.832012
 H         7.748917         3.366334         2.026770
 H         6.363813         4.161921         2.714971
           4
Iteration:    98
 N         7.369899         4.264431         2.496586
 H         7.638256         5.011421         1.849889
 H         7.735779         3.384544         2.047532
 H         6.372736         4.173378         2.705527
           4
Iteration:    99
 N         7.372691         4.261564         2.494186
 H         7.608990         5.009248         1.870199
 H         7.715136         3.412255         2.075463
 H         6.383846         4.187683         2.690636
           4
Iteration:   100
 N         7.375909         4.258492         2.492346
 H         7.576942         5.013638         1.886623
 H         7.694094         3.434878         2.102208
 H         6.392213         4.203351         2.673028
           4
Iteration:   101
 N         7.378961         4.256332         2.491914
 H         7.546453         5.028305         1.894449
 H         7.680855         3.434852         2.117959
 H         6.393532         4.218735         2.655455
           4
Iteration:   102
 N         7.381604         4.255737         2.493118
 H         7.519381         5.051657         1.893271
 H         7.678345         3.405842         2.118599
 H         6.386385         4.232659         2.639271
           4
Iteration:   103
 N         7.383924         4.256400         2.495454
 H         7.496646         5.077135         1.885884
 H         7.682402         3.359967         2.107917
 H         6.372822         4.243840         2.624878
           4
Iteration:   104
 N         7.385967         4.257565         2.498118
 H         7.479318         5.096204         1.876289
 H         7.686277         3.317734         2.093009
 H         6.357880         4.250815         2.612359
           4
Iteration:   105
 N         7.387670         4.258684         2.500551
 H         7.467846         5.102952         1.867462
 H         7.685280         3.293521         2.079006
 H         6.346686         4.252728         2.601380
           4
Iteration:   106
 N         7.388971         4.259525         2.502585
 H         7.462129         5.094881         1.860363
 H         7.677225         3.293413         2.067884
 H         6.342379         4.249219         2.591331
           4
Iteration:   107
 N         7.389807         4.259999         2.504285
 H         7.462504         5.071082         1.854300
 H         7.661106         3.320087         2.059793
 H         6.346508         4.239764         2.581864
           4
Iteration:   108
 N         7.390058         4.260112         2.505868
 H         7.470003         5.033464         1.846991
 H         7.637843         3.371846         2.053424
 H         6.358789         4.224052         2.573547
           4
Iteration:   109
 N         7.389592         4.260220         2.507798
 H         7.484823         4.991487         1.834731
 H         7.613571         3.432465         2.044245
 H         6.374717         4.203900         2.568165
           4
Iteration:   110
 N         7.388436         4.261162         2.510740
 H         7.504741         4.958973         1.814797
 H         7.598131         3.472430         2.024131
 H         6.386294         4.183367         2.567324
           4
Iteration:   111
 N         7.386883         4.263391         2.514899
 H         7.526586         4.942201         1.788344
 H         7.596054         3.476108         1.989120
 H         6.388111         4.165486         2.570988
           4
Iteration:   112
 N         7.385430         4.266243         2.519395
 H         7.547036         4.938740         1.760823
 H         7.603830         3.453674         1.947344
 H         6.380077         4.151746         2.577809
           4
Iteration:   113
 N         7.384468         4.268667         2.522874
 H         7.562701         4.942467         1.739484
 H         7.614886         3.424964         1.912466
 H         6.366730         4.143046         2.585689
           4
Iteration:   114
 N         7.384055         4.270075         2.524537
 H         7.571653         4.947915         1.728967
 H         7.624463         3.403436         1.892750
 H         6.353936         4.139559         2.592807
           4
Iteration:   115
 N         7.384063         4.270317         2.524201
 H         7.573568         4.952349         1.730549
 H         7.630613         3.394131         1.890325
 H         6.345761         4.141073         2.598322
           4
Iteration:   116
 N         7.384354         4.269329         2.521848
 H         7.568559         4.955423         1.744216
 H         7.632890         3.398203         1.905581
 H         6.344440         4.147648         2.602095
           4
Iteration:   117
 N         7.384816         4.267025         2.517517
 H         7.556845         4.958779         1.769138
 H         7.631626         3.414855         1.938561
 H         6.351007         4.159661         2.604376
           4
Iteration:   118
 N         7.385288         4.263569         2.511707
 H         7.539869         4.966220         1.801540
 H         7.628725         3.438269         1.985361
 H         6.364316         4.176839         2.605909
           4
Iteration:   119
 N         7.385518         4.259860         2.505788
 H         7.521434         4.982378         1.833412
 H         7.628896         3.453465         2.033559
 H         6.379395         4.197015         2.608101
           4
Iteration:   120
 N         7.385286         4.257244         2.501203
 H         7.505858         5.008781         1.857682
 H         7.637640         3.443455         2.068579
 H         6.389447         4.216982         2.612523
           4
Iteration:   121
 N         7.384661         4.256295         2.498275
 H         7.495611         5.041641         1.873022
 H         7.655796         3.406551         2.086381