           5
Iteration:     0
 C         7.380000         4.260800         2.500000
 H         7.913600         4.423300         3.444300
 H         7.587000         5.092200         1.815300
 H         7.717500         3.321000         2.046400
 H         6.301900         4.206600         2.693800
           5
Iteration:     1
 C         7.380000         4.260800         2.500000
 H         7.913600         4.423300         3.444300
 H         7.587000         5.092200         1.815300
 H         7.717500         3.321000         2.046400
 H         6.301900         4.206600         2.693800
           5
Iteration:     2
 C         7.376470         4.260101         2.497625
 H         7.905073         4.432570         3.449288
 H         7.613947         5.089284         1.817621
 H         7.747118         3.314852         2.031143
 H         6.295931         4.214726         2.730055
           5
Iteration:     3
 C         7.373109         4.259126         2.495303
 H         7.896815         4.441025         3.452820
 H         7.639156         5.086403         1.820304
 H         7.773407         3.313136         2.019200
 H         6.292729         4.222478         2.763452
           5
Iteration:     4
 C         7.370033         4.257730         2.493075
 H         7.889148         4.448093         3.453949
 H         7.661392         5.083580         1.823702
 H         7.794123         3.318398         2.012744
 H         6.294104         4.229608         2.791919
           5
Iteration:     5
 C         7.367299         4.255878         2.490957
 H         7.882444         4.453458         3.452208
 H         7.679922         5.080835         1.828202
 H         7.808177         3.331449         2.012873
 H         6.300809         4.236004         2.814276
           5
Iteration:     6
 C         7.364944         4.253631         2.488949
 H         7.877274         4.456956         3.447506
 H         7.694206         5.078322         1.834206
 H         7.815289         3.351650         2.019942
 H         6.312634         4.241603         2.829826
           5
Iteration:     7
 C         7.363022         4.251175         2.487084
 H         7.874579         4.458457         3.440049
 H         7.703542         5.076487         1.842094
 H         7.815875         3.376548         2.033609
 H         6.328315         4.246301         2.837959
           5
Iteration:     8
 C         7.361604         4.248919         2.485470
 H         7.875854         4.457799         3.430354
 H         7.706840         5.076241         1.852171
 H         7.811415         3.400733         2.052450
 H         6.345096         4.249903         2.837964
           5
Iteration:     9
 C         7.360795         4.247579         2.484341
 H         7.883344         4.454700         3.419211
 H         7.702407         5.079174         1.864616
 H         7.804859         3.414685         2.073690
 H         6.358243         4.252090         2.828877
           5
Iteration:    10
 C         7.360824         4.248138         2.484047
 H         7.900380         4.448545         3.407528
 H         7.687512         5.087886         1.879424
 H         7.799815         3.405248         2.094111
 H         6.360801         4.252304         2.808839
           5
Iteration:    11
 C         7.362281         4.251483         2.484982
 H         7.931224         4.438224         3.396365
 H         7.658125         5.106213         1.895800
 H         7.797477         3.360162         2.112268
 H         6.344314         4.249524         2.774329
           5
Iteration:    12
 C         7.365841         4.257263         2.487332
 H         7.975547         4.423494         3.387546
 H         7.613563         5.135911         1.909937
 H         7.793465         3.283145         2.128790
 H         6.306140         4.242696         2.724480
           5
Iteration:    13
 C         7.370594         4.262708         2.490409
 H         8.017598         4.408420         3.382952
 H         7.567453         5.167530         1.915540
 H         7.782433         3.211133         2.142285
 H         6.264594         4.233279         2.673312
           5
Iteration:    14
 C         7.374725         4.265689         2.493162
 H         8.042515         4.397395         3.381626
 H         7.534147         5.188933         1.912386
 H         7.765765         3.174168         2.150793
 H         6.240432         4.224349         2.636472
           5
Iteration:    15
 C         7.377773         4.266484         2.495316
 H         8.050850         4.390559         3.381730
 H         7.513879         5.198111         1.904310
 H         7.746330         3.169906         2.154902
 H         6.235483         4.216792         2.614668
           5
Iteration:    16
 C         7.379960         4.265844         2.496953
 H         8.047036         4.386933         3.382666
 H         7.502993         5.196836         1.893796
 H         7.725492         3.188898         2.155391
 H         6.244959         4.210332         2.604252
           5
Iteration:    17
 C         7.381520         4.264354         2.498157
 H         8.034499         4.385965         3.384796
 H         7.499038         5.186865         1.881994
 H         7.704508         3.223199         2.152151
 H         6.263843         4.204719         2.602819
           5
Iteration:    18
 C         7.382610         4.262588         2.499004
 H         8.016142         4.387416         3.388883
 H         7.500601         5.170147         1.869527
 H         7.685510         3.264315         2.144245
 H         6.286641         4.199916         2.609019
           5
Iteration:    19
 C         7.383351         4.261183         2.499626
 H         7.994845         4.391017         3.395574
 H         7.506550         5.149308         1.856764
 H         7.671300         3.302236         2.130244
 H         6.307369         4.195976         2.621673
           5
Iteration:    20
 C         7.383847         4.260665         2.500219
 H         7.973058         4.396335         3.405032
 H         7.515779         5.127271         1.843755
 H         7.664144         3.328207         2.108919
 H         6.321178         4.192897         2.639484
           5
Iteration:    21
 C         7.384174         4.261172         2.500936
 H         7.952403         4.402826         3.416856
 H         7.527317         5.106581         1.830284
 H         7.664590         3.338650         2.080410
 H         6.325952         4.190605         2.661101
           5
Iteration:    22
 C         7.384367         4.262370         2.501783
 H         7.933842         4.409894         3.430136
 H         7.540323         5.089143         1.816209
 H         7.671193         3.336310         2.047233
 H         6.322611         4.189049         2.684973
           5
Iteration:    23
 C         7.384404         4.263663         2.502634
 H         7.917958         4.416922         3.443537
 H         7.553953         5.076043         1.801836
 H         7.681261         3.327762         2.013836
 H         6.314344         4.188256         2.709201
           5
Iteration:    24
 C         7.384231         4.264529         2.503324
 H         7.904990         4.423369         3.455595
 H         7.567383         5.067342         1.788004
 H         7.692063         3.319650         1.984734
 H         6.305145         4.188303         2.731856
           5
Iteration:    25
 C         7.383788         4.264679         2.503723
 H         7.894851         4.428887         3.465082
 H         7.579957         5.062235         1.775841
 H         7.701688         3.316473         1.963002
 H         6.298366         4.189279         2.751515
           5
Iteration:    26
 C         7.383028         4.264022         2.503741
 H         7.887332         4.433317         3.471109
 H         7.591258         5.059573         1.766524
 H         7.709169         3.320533         1.950201
 H         6.296155         4.191288         2.767389
           5
Iteration:    27
 C         7.381908         4.262557         2.503304
 H         7.882381         4.436599         3.472963
 H         7.601012         5.058348         1.761260
 H         7.714219         3.332732         1.947136
 H         6.299649         4.194486         2.779068
           5
Iteration:    28
 C         7.380370         4.260329         2.502336
 H         7.880373         4.438684         3.469871
 H         7.608927         5.057963         1.761468
 H         7.717067         3.352942         1.954445
 H         6.309221         4.199129         2.786176
           5
Iteration:    29
 C         7.378332         4.257477         2.500778
 H         7.882371         4.439484         3.460904
 H         7.614555         5.058426         1.768943
 H         7.718716         3.379202         1.972478
 H         6.324235         4.205588         2.788206
           5
Iteration:    30
 C         7.375684         4.254400         2.498660
 H         7.890377         4.438910         3.445164
 H         7.617228         5.060636         1.785766
 H         7.721771         3.405503         2.000202
 H         6.342058         4.214311         2.784637
           5
Iteration:    31
 C         7.372299         4.251914         2.496185
 H         7.907391         4.436985         3.422323
 H         7.616210         5.066774         1.813691
 H         7.731392         3.419516         2.033887
 H         6.356774         4.225708         2.775354
           5
Iteration:    32
 C         7.368142         4.251014         2.493650
 H         7.936821         4.433982         3.393487
 H         7.611113         5.080503         1.852751
 H         7.754168         3.405352         2.068143
 H         6.359199         4.239873         2.761091
           5
Iteration:    33
 C         7.363684         4.251917         2.491233
 H         7.979170         4.430592         3.362972
 H         7.602739         5.105460         1.897902
 H         7.791169         3.357294         2.099420
 H         6.341340         4.255605         2.743981
           5
Iteration:    34
 C         7.360156         4.253379         2.489179
 H         8.025137         4.427736         3.339040
 H         7.593932         5.139203         1.936174
 H         7.829593         3.295564         2.125423
 H         6.307805         4.269027         2.728105
           5
Iteration:    35
 C         7.358402         4.254067         2.487820
 H         8.060704         4.425705         3.326657
 H         7.587310         5.171873         1.957552
 H         7.853745         3.249264         2.143974
 H         6.275602         4.276491         2.716761
           5
Iteration:    36
 C         7.358238         4.253810         2.487162
 H         8.080995         4.424111         3.323694
 H         7.582839         5.196505         1.963637
 H         7.860207         3.227900         2.155574
 H         6.255275         4.277882         2.709874
           5
Iteration:    37
 C         7.359276         4.252948         2.487056
 H         8.087318         4.422603         3.326805
 H         7.579419         5.211030         1.959333
 H         7.851665         3.228682         2.161709
 H         6.248545         4.274355         2.706200
           5
Iteration:    38
 C         7.361326         4.251835         2.487402
 H         8.081262         4.421089         3.334216
 H         7.576170         5.214691         1.947810
 H         7.830615         3.247512         2.162893
 H         6.254472         4.266638         2.704998
           5
Iteration:    39
 C         7.364296         4.250877         2.488189
 H         8.063803         4.419697         3.345340
 H         7.572619         5.206772         1.930767
 H         7.799500         3.279723         2.158260
 H         6.271203         4.255155         2.706176
           5
Iteration:    40
 C         7.367974         4.250666         2.489460
 H         8.036837         4.418694         3.359828
 H         7.568711         5.187676         1.909745
 H         7.763089         3.316738         2.145838
 H         6.294666         4.240752         2.709979
           5
Iteration:    41
 C         7.371926         4.251863         2.491268
 H         8.004546         4.418296         3.376832
 H         7.564772         5.160664         1.886803
 H         7.729034         3.345516         2.123692
 H         6.317861         4.225122         2.716520
           5
Iteration:    42
 C         7.375722         4.254682         2.493584
 H         7.972296         4.418464         3.395051
 H         7.561272         5.131393         1.863811
 H         7.703712         3.355991         2.092003
 H         6.333698         4.210155         2.725386
           5
Iteration:    43
 C         7.379166         4.258517         2.496190
 H         7.944305         4.418928         3.413229
 H         7.558544         5.105352         1.841689
 H         7.688207         3.348927         2.054728
 H         6.338887         4.197103         2.735558
           5
Iteration:    44
 C         7.382189         4.262309         2.498729
 H         7.922710         4.419371         3.430302
 H         7.556669         5.085912         1.820741
 H         7.679680         3.333314         2.018332
 H         6.334854         4.186517         2.745575
           5
Iteration:    45
 C         7.384722         4.265246         2.500912
 H         7.907770         4.419546         3.445395
 H         7.555462         5.073765         1.801271
 H         7.674759         3.318325         1.988279
 H         6.325745         4.178491         2.753981
           5
Iteration:    46
 C         7.386705         4.267008         2.502614
 H         7.898612         4.419292         3.457858
 H         7.554555         5.067659         1.783812
 H         7.671159         3.309280         1.967214
 H         6.315771         4.172895         2.759763
           5
Iteration:    47
 C         7.388121         4.267615         2.503816
 H         7.894096         4.418497         3.467180
 H         7.553519         5.065650         1.769091
 H         7.667721         3.308182         1.955700
 H         6.307888         4.169558         2.762360
           5
Iteration:    48
 C         7.388965         4.267209         2.504536
 H         7.893368         4.417056         3.472819
 H         7.551937         5.065950         1.757995
 H         7.664046         3.315318         1.953516
 H         6.303818         4.168412         2.761420
           5
Iteration:    49
 C         7.389211         4.265952         2.504803
 H         7.896070         4.414840         3.474042
 H         7.549406         5.067236         1.751624
 H         7.660305         3.330051         1.960344
 H         6.304465         4.169578         2.756557
           5
Iteration:    50
 C         7.388777         4.264055         2.504667
 H         7.902429         4.411712         3.469827
 H         7.545525         5.068698         1.751397
 H         7.657388         3.350493         1.975713
 H         6.310072         4.173416         2.747253
           5
Iteration:    51
 C         7.387508         4.261869         2.504244
 H         7.913334         4.407573         3.458919
 H         7.539942         5.070104         1.759067
 H         7.657365         3.372161         1.998318
 H         6.319894         4.180522         2.732927
           5
Iteration:    52
 C         7.385175         4.259996         2.503764
 H         7.930421         4.402496         3.440134
 H         7.532509         5.072069         1.776436
 H         7.664053         3.386454         2.025184
 H         6.331349         4.191657         2.713193
           5
Iteration:    53
 C         7.381562         4.259163         2.503511
 H         7.955981         4.396936         3.413118
 H         7.523653         5.076537         1.804456
 H         7.682717         3.381656         2.052027
 H         6.339040         4.207473         2.688360
           5
Iteration:    54
 C         7.376761         4.259619         2.503579
 H         7.991613         4.392036         3.380030
 H         7.515066         5.087080         1.840980
 H         7.716739         3.350401         2.075641
 H         6.335172         4.227651         2.660501
           5
Iteration:    55
 C         7.371614         4.260483         2.503723
 H         8.034031         4.389560         3.347720
 H         7.510072         5.106911         1.877623
 H         7.760709         3.301278         2.095195
 H         6.315114         4.249129         2.634894
           5
Iteration:    56
 C         7.367368         4.260421         2.503642
 H         8.073327         4.390512         3.324635
 H         7.511397         5.133945         1.903463
 H         7.800338         3.256564         2.110468
 H         6.285466         4.266600         2.617829
           5
Iteration:    57
 C         7.364579         4.259025         2.503223
 H         8.101268         4.394293         3.313289
 H         7.518610         5.161431         1.915280
 H         7.825626         3.231423         2.121540
 H         6.258260         4.277100         2.611290
           5
Iteration:    58
 C         7.363109         4.256646         2.502441
 H         8.115605         4.399971         3.311342
 H         7.529875         5.183630         1.916523
 H         7.835178         3.228169         2.129043
 H         6.240614         4.280834         2.613802
           5
Iteration:    59
 C         7.362732         4.253713         2.501272
 H         8.116348         4.407124         3.316312
 H         7.543857         5.197002         1.911129
 H         7.830462         3.244695         2.133331
 H         6.235102         4.278723         2.623876
           5
Iteration:    60
 C         7.363337         4.250662         2.499709
 H         8.103242         4.415674         3.326942
 H         7.559697         5.198863         1.901666
 H         7.813016         3.278040         2.133764
 H         6.242603         4.271323         2.640894
           5
Iteration:    61
 C         7.364834         4.248176         2.497895
 H         8.076386         4.425336         3.342505
 H         7.576201         5.187299         1.889911
 H         7.785830         3.321672         2.128285
 H         6.262300         4.259216         2.664182
           5
Iteration:    62
 C         7.366950         4.247294         2.496258
 H         8.038814         4.435091         3.361548
 H         7.591285         5.163346         1.877535
 H         7.755954         3.361621         2.113766
 H         6.289457         4.243986         2.691544
           5
Iteration:    63
 C         7.369259         4.248807         2.495363
 H         7.997269         4.443389         3.381646
 H         7.602794         5.132693         1.865730
 H         7.732417         3.381705         2.088344
 H         6.315513         4.228218         2.719336
           5
Iteration:    64
 C         7.371547         4.252363         2.495427
 H         7.958780         4.449072         3.400695
 H         7.609915         5.103131         1.854393
 H         7.719125         3.377344         2.054795
 H         6.332903         4.214086         2.744409
           5
Iteration:    65
 C         7.373852         4.256612         2.496164
 H         7.927684         4.451826         3.417703
 H         7.613189         5.080685         1.842484
 H         7.713347         3.357932         2.020351
 H         6.339039         4.202562         2.764967
           5
Iteration:    66
 C         7.376182         4.260281         2.497152
 H         7.905293         4.451926         3.432485
 H         7.613593         5.067786         1.829173
 H         7.710549         3.335867         1.991923
 H         6.336063         4.193710         2.780156
           5
Iteration:    67
 C         7.378455         4.262775         2.498111
 H         7.890897         4.449811         3.445136
 H         7.611769         5.063654         1.814545
 H         7.707652         3.318889         1.972945
 H         6.328095         4.187216         2.789686
           5
Iteration:    68
 C         7.380591         4.264042         2.498907
 H         7.883086         4.445793         3.455661
 H         7.607781         5.065900         1.799551
 H         7.703212         3.310018         1.964102
 H         6.318876         4.182754         2.793506
           5
Iteration:    69
 C         7.382552         4.264270         2.499484
 H         7.880599         4.439956         3.463812
 H         7.601240         5.071883         1.785614
 H         7.696726         3.309774         1.965024
 H         6.311030         4.180135         2.791504
           5
Iteration:    70
 C         7.384320         4.263721         2.499827
 H         7.882619         4.432174         3.469036
 H         7.591476         5.079299         1.774357
 H         7.688199         3.317473         1.975141
 H         6.306227         4.179344         2.783334
           5
Iteration:    71
 C         7.385870         4.262719         2.499976
 H         7.888789         4.422198         3.470510
 H         7.577680         5.086275         1.767506
 H         7.678146         3.331223         1.993664
 H         6.305433         4.180536         2.768405
           5
Iteration:    72
 C         7.387138         4.261725         2.500060
 H         7.899114         4.409789         3.467260
 H         7.559084         5.091336         1.766813
 H         7.667896         3.346965         2.018935
 H         6.308854         4.183990         2.746071
           5
Iteration:    73
 C         7.388011         4.261401         2.500322
 H         7.913801         4.394957         3.458491
 H         7.535326         5.093529         1.773720
 H         7.659909         3.357457         2.047671
 H         6.315503         4.189996         2.716080
           5
Iteration:    74
 C         7.388386         4.262474         2.501060
 H         7.933038         4.378259         3.444169
 H         7.507017         5.092885         1.788559
 H         7.657402         3.353391         2.075215
 H         6.322611         4.198619         2.679227
           5
Iteration:    75
 C         7.388280         4.265211         2.502437
 H         7.956562         4.361142         3.425753
 H         7.476527         5.091173         1.809311
 H         7.662613         3.328903         2.097558
 H         6.325631         4.209326         2.638143
           5
Iteration:    76
 C         7.387879         4.268847         2.504312
 H         7.982928         4.346054         3.406589
 H         7.448439         5.092227         1.830695
 H         7.674657         3.288298         2.113327
 H         6.320088         4.220635         2.597807
           5
Iteration:    77
 C         7.387364         4.271876         2.506341
 H         8.009378         4.335603         3.390727
 H         7.428138         5.100214         1.845945
 H         7.689633         3.244876         2.123394
 H         6.305095         4.230419         2.564177
           5
Iteration:    78
 C         7.386719         4.273114         2.508176
 H         8.033071         4.331316         3.380596
 H         7.419109         5.116422         1.851214
 H         7.703409         3.211574         2.129261
 H         6.284343         4.237058         2.541305
           5
Iteration:    79
 C         7.385764         4.272165         2.509526
 H         8.051999         4.333693         3.376375
 H         7.422584         5.138333         1.847172
 H         7.713528         3.195710         2.132033
 H         6.263208         4.239933         2.530712
           5
Iteration:    80
 C         7.384270         4.269089         2.510112
 H         8.064457         4.343184         3.377123
 H         7.439232         5.161185         1.836959
 H         7.718874         3.200984         2.132071
 H         6.246554         4.238976         2.533147
           5
Iteration:    81
 C         7.382031         4.264092         2.509651
 H         8.068082         4.360669         3.381673
 H         7.470047         5.179084         1.824366
 H         7.718918         3.229887         2.128815
 H         6.238755         4.234231         2.549943
           5
Iteration:    82
 C         7.378971         4.257801         2.507963
 H         8.059784         4.386451         3.388614
 H         7.514642         5.185171         1.813638
 H         7.714110         3.281151         2.120532
 H         6.243721         4.226066         2.582125
           5
Iteration:    83
 C         7.375416         4.251992         2.505391
 H         8.038517         4.417197         3.395745
 H         7.566308         5.174117         1.809223
 H         7.707917         3.340616         2.104616
 H         6.261885         4.216123         2.625972
           5
Iteration:    84
 C         7.372094         4.249060         2.502980
 H         8.009232         4.445379         3.400768
 H         7.611960         5.148298         1.812881
 H         7.706752         3.382090         2.079615
 H         6.286263         4.207235         2.671023
           5
Iteration:    85
 C         7.369623         4.249643         2.501509
 H         7.979589         4.465570         3.403295
 H         7.643175         5.116796         1.821919
 H         7.713573         3.392565         2.048069
 H         6.307310         4.201118         2.708530
           5
Iteration:    86
 C         7.368300         4.252345         2.500852
 H         7.954440         4.477217         3.404748
 H         7.660079         5.087945         1.831970
 H         7.724956         3.380989         2.016601
 H         6.319946         4.197702         2.736322
           5
Iteration:    87
 C         7.368102         4.255450         2.500542
 H         7.935484         4.482024         3.406869
 H         7.666460         5.066634         1.839375
 H         7.735880         3.361944         1.991504
 H         6.323959         4.196249         2.755592
           5
Iteration:    88
 C         7.368773         4.257915         2.500281
 H         7.922580         4.481852         3.410813
 H         7.666102         5.054799         1.841923
 H         7.743386         3.344743         1.975654
 H         6.321708         4.196089         2.768062
           5
Iteration:    89
 C         7.370034         4.259350         2.499968
 H         7.914823         4.477945         3.416976
 H         7.661373         5.052411         1.838879
 H         7.746489         3.333187         1.969356
 H         6.316073         4.196841         2.774973
           5
Iteration:    90
 C         7.371703         4.259748         2.499578
 H         7.911168         4.470864         3.425123
 H         7.653109         5.058232         1.830760
 H         7.745092         3.328180         1.972042
 H         6.309496         4.198360         2.776908
           5
Iteration:    91
 C         7.373716         4.259312         2.499099
 H         7.910643         4.460675         3.434520
 H         7.641000         5.070215         1.819066
 H         7.739389         3.329307         1.983033
 H         6.303853         4.200635         2.773920
           5
Iteration:    92
 C         7.376068         4.258398         2.498538
 H         7.912342         4.447199         3.444017
 H         7.624134         5.085732         1.806020
 H         7.729838         3.335087         2.001430
 H         6.300545         4.203705         2.765751
           5
Iteration:    93
 C         7.378758         4.257526         2.497958
 H         7.915376         4.430281         3.452172
 H         7.601529         5.101769         1.794274
 H         7.717421         3.342469         2.025582
 H         6.300475         4.207589         2.752109
           5
Iteration:    94
 C         7.381745         4.257377         2.497493
 H         7.918881         4.410054         3.457518
 H         7.572649         5.115206         1.786517
 H         7.703851         3.346406         2.052650
 H         6.303820         4.212224         2.732987
           5
Iteration:    95
 C         7.384958         4.258663         2.497313
 H         7.922113         4.387156         3.458981
 H         7.537836         5.123291         1.784943
 H         7.691253         3.340726         2.078934
 H         6.309721         4.217396         2.708963
           5
Iteration:    96
 C         7.388342         4.261815         2.497504
 H         7.924598         4.362915         3.456349
 H         7.498722         5.124305         1.790579
 H         7.681165         3.321146         2.101159
 H         6.316116         4.222641         2.681460
           5
Iteration:    97
 C         7.391865         4.266578         2.497986
 H         7.926265         4.339512         3.450664
 H         7.458671         5.118520         1.802434
 H         7.673591         3.289070         2.117717
 H         6.320086         4.227141         2.652981
           5
Iteration:    98
 C         7.395429         4.271911         2.498585
 H         7.927471         4.319676         3.444228
 H         7.422452         5.109050         1.816872
 H         7.667153         3.252205         2.128711
 H         6.319072         4.229770         2.626847
           5
Iteration:    99
 C         7.398822         4.276455         2.499194
 H         7.928802         4.305694         3.439782
 H         7.394407         5.101195         1.828526
 H         7.660138         3.220230         2.135090
 H         6.312371         4.229433         2.606009